<?xml version="1.0" encoding="UTF-8"?>

<!-- generated on 2022-03-20 20:22:34 by Eclipse SUMO sumo Version v1_12_0+1541-77deb7a3227
<configuration xmlns:xsi="http://www.w3.org/2001/XMLSchema-instance" xsi:noNamespaceSchemaLocation="http://sumo.dlr.de/xsd/sumoConfiguration.xsd">

    <input>
        <net-file value="/home/radoslav/PycharmProjects/SumoTD/simulation/updated.net.xml"/>
        <route-files value="/home/radoslav/PycharmProjects/SumoTD/simulation/Data/Out/DUAout.xml"/>
        <additional-files value="/home/radoslav/PycharmProjects/SumoTD/simulation/additional.xml,/home/radoslav/PycharmProjects/SumoTD/simulation/Data/Out/Vtype.xml"/>
    </input>

    <output>
        <statistic-output value="/home/radoslav/PycharmProjects/SumoTD/simulation/stat.xml"/>
    </output>

    <time>
        <end value="86400"/>
    </time>

    <processing>
        <ignore-route-errors value="true"/>
        <collision.action value="teleport"/>
        <time-to-teleport value="3600"/>
    </processing>

    <routing>
        <device.rerouting.adaptation-steps value="18"/>
        <device.rerouting.adaptation-interval value="10"/>
    </routing>

    <report>
        <verbose value="true"/>
        <log value="/home/radoslav/PycharmProjects/SumoTD/simulation/log.xml"/>
        <duration-log.statistics value="true"/>
    </report>

    <gui_only>
        <gui-settings-file value="/home/radoslav/PycharmProjects/SumoTD/simulation/osm.view.xml"/>
    </gui_only>

</configuration>
-->

<detector xmlns:xsi="http://www.w3.org/2001/XMLSchema-instance" xsi:noNamespaceSchemaLocation="http://sumo.dlr.de/xsd/det_e1_file.xsd">
    <interval begin="0.00" end="3600.00" id="601:1Din" nVehContrib="4" flow="4.00" occupancy="0.07" speed="8.41" harmonicMeanSpeed="7.56" length="5.00" nVehEntered="4"/>
    <interval begin="0.00" end="3600.00" id="601:3Din" nVehContrib="6" flow="6.00" occupancy="0.09" speed="10.97" harmonicMeanSpeed="10.72" length="5.00" nVehEntered="7"/>
    <interval begin="0.00" end="3600.00" id="601:9Din" nVehContrib="1" flow="1.00" occupancy="0.06" speed="2.31" harmonicMeanSpeed="2.31" length="5.00" nVehEntered="1"/>
    <interval begin="0.00" end="3600.00" id="601:5Din" nVehContrib="0" flow="0.00" occupancy="0.00" speed="-1.00" harmonicMeanSpeed="-1.00" length="-1.00" nVehEntered="0"/>
    <interval begin="0.00" end="3600.00" id="601:7Din" nVehContrib="2" flow="2.00" occupancy="0.06" speed="4.82" harmonicMeanSpeed="4.77" length="5.00" nVehEntered="2"/>
    <interval begin="0.00" end="3600.00" id="601:11Din" nVehContrib="12" flow="12.00" occupancy="0.66" speed="2.55" harmonicMeanSpeed="2.54" length="5.00" nVehEntered="12"/>
    <interval begin="0.00" end="3600.00" id="601:13Din" nVehContrib="4" flow="4.00" occupancy="0.08" speed="7.16" harmonicMeanSpeed="7.04" length="5.00" nVehEntered="4"/>
    <interval begin="0.00" end="3600.00" id="601:15Din" nVehContrib="0" flow="0.00" occupancy="0.00" speed="-1.00" harmonicMeanSpeed="-1.00" length="-1.00" nVehEntered="0"/>
    <interval begin="0.00" end="3600.00" id="601:17Din" nVehContrib="1" flow="1.00" occupancy="0.03" speed="3.97" harmonicMeanSpeed="3.97" length="5.00" nVehEntered="1"/>
    <interval begin="0.00" end="3600.00" id="502:19Din" nVehContrib="15" flow="15.00" occupancy="0.99" speed="2.55" harmonicMeanSpeed="2.54" length="5.00" nVehEntered="18"/>
    <interval begin="0.00" end="3600.00" id="502:21Din" nVehContrib="3" flow="3.00" occupancy="0.09" speed="4.78" harmonicMeanSpeed="4.78" length="5.00" nVehEntered="3"/>
    <interval begin="0.00" end="3600.00" id="502:23Din" nVehContrib="0" flow="0.00" occupancy="0.00" speed="-1.00" harmonicMeanSpeed="-1.00" length="-1.00" nVehEntered="0"/>
    <interval begin="0.00" end="3600.00" id="502:17Din" nVehContrib="13" flow="13.00" occupancy="0.24" speed="7.54" harmonicMeanSpeed="7.44" length="5.00" nVehEntered="13"/>
    <interval begin="0.00" end="3600.00" id="502:15Din" nVehContrib="51" flow="51.00" occupancy="0.93" speed="7.76" harmonicMeanSpeed="7.66" length="5.00" nVehEntered="51"/>
    <interval begin="0.00" end="3600.00" id="502:13Din" nVehContrib="1" flow="1.00" occupancy="0.01" speed="9.39" harmonicMeanSpeed="9.39" length="5.00" nVehEntered="1"/>
    <interval begin="0.00" end="3600.00" id="502:11Din" nVehContrib="17" flow="17.00" occupancy="0.18" speed="17.80" harmonicMeanSpeed="13.28" length="5.00" nVehEntered="17"/>
    <interval begin="0.00" end="3600.00" id="502:1Din" nVehContrib="13" flow="13.00" occupancy="0.12" speed="18.23" harmonicMeanSpeed="14.97" length="5.00" nVehEntered="13"/>
    <interval begin="0.00" end="3600.00" id="502:3Din" nVehContrib="2" flow="2.00" occupancy="0.02" speed="16.89" harmonicMeanSpeed="14.56" length="5.00" nVehEntered="2"/>
    <interval begin="0.00" end="3600.00" id="502:5Din" nVehContrib="0" flow="0.00" occupancy="0.00" speed="-1.00" harmonicMeanSpeed="-1.00" length="-1.00" nVehEntered="0"/>
    <interval begin="0.00" end="3600.00" id="502:7Din" nVehContrib="15" flow="15.00" occupancy="0.80" speed="2.62" harmonicMeanSpeed="2.61" length="5.00" nVehEntered="15"/>
    <interval begin="0.00" end="3600.00" id="502:9Din" nVehContrib="2" flow="2.00" occupancy="0.06" speed="4.96" harmonicMeanSpeed="4.77" length="5.00" nVehEntered="2"/>
    <interval begin="0.00" end="3600.00" id="302:9Din" nVehContrib="7" flow="7.00" occupancy="0.13" speed="7.74" harmonicMeanSpeed="7.70" length="5.00" nVehEntered="7"/>
    <interval begin="0.00" end="3600.00" id="302:11Din" nVehContrib="5" flow="5.00" occupancy="0.07" speed="12.17" harmonicMeanSpeed="9.73" length="5.00" nVehEntered="5"/>
    <interval begin="0.00" end="3600.00" id="302:13Din" nVehContrib="2" flow="2.00" occupancy="0.01" speed="26.60" harmonicMeanSpeed="26.59" length="5.00" nVehEntered="2"/>
    <interval begin="0.00" end="3600.00" id="302:15Din" nVehContrib="3" flow="3.00" occupancy="0.02" speed="23.20" harmonicMeanSpeed="23.06" length="5.00" nVehEntered="3"/>
    <interval begin="0.00" end="3600.00" id="302:17Din" nVehContrib="2" flow="2.00" occupancy="0.02" speed="15.68" harmonicMeanSpeed="15.58" length="5.00" nVehEntered="2"/>
    <interval begin="0.00" end="3600.00" id="302:19Din" nVehContrib="0" flow="0.00" occupancy="0.00" speed="-1.00" harmonicMeanSpeed="-1.00" length="-1.00" nVehEntered="0"/>
    <interval begin="0.00" end="3600.00" id="302:21Din" nVehContrib="8" flow="8.00" occupancy="0.07" speed="16.94" harmonicMeanSpeed="16.56" length="5.00" nVehEntered="8"/>
    <interval begin="0.00" end="3600.00" id="302:22Din" nVehContrib="0" flow="0.00" occupancy="0.00" speed="-1.00" harmonicMeanSpeed="-1.00" length="-1.00" nVehEntered="0"/>
    <interval begin="0.00" end="3600.00" id="302:24Din" nVehContrib="0" flow="0.00" occupancy="0.00" speed="-1.00" harmonicMeanSpeed="-1.00" length="-1.00" nVehEntered="0"/>
    <interval begin="0.00" end="3600.00" id="302:25Din" nVehContrib="9" flow="9.00" occupancy="5.23" speed="3.79" harmonicMeanSpeed="0.24" length="5.00" nVehEntered="9"/>
    <interval begin="0.00" end="3600.00" id="302:27Din" nVehContrib="2" flow="2.00" occupancy="0.20" speed="32.27" harmonicMeanSpeed="32.15" length="5.00" nVehEntered="3"/>
    <interval begin="0.00" end="3600.00" id="302:29Din" nVehContrib="6" flow="6.00" occupancy="0.94" speed="11.51" harmonicMeanSpeed="1.11" length="5.00" nVehEntered="7"/>
    <interval begin="0.00" end="3600.00" id="302:1Din" nVehContrib="6" flow="6.00" occupancy="0.04" speed="24.44" harmonicMeanSpeed="24.39" length="5.00" nVehEntered="7"/>
    <interval begin="0.00" end="3600.00" id="302:3Din" nVehContrib="1" flow="1.00" occupancy="0.03" speed="4.65" harmonicMeanSpeed="4.65" length="5.00" nVehEntered="1"/>
    <interval begin="0.00" end="3600.00" id="302:5Din" nVehContrib="1" flow="1.00" occupancy="0.01" speed="23.30" harmonicMeanSpeed="23.30" length="5.00" nVehEntered="1"/>
    <interval begin="0.00" end="3600.00" id="302:7Din" nVehContrib="13" flow="13.00" occupancy="0.08" speed="23.89" harmonicMeanSpeed="23.80" length="5.00" nVehEntered="13"/>
    <interval begin="0.00" end="3600.00" id="402:8Din" nVehContrib="31" flow="31.00" occupancy="1.71" speed="2.52" harmonicMeanSpeed="2.51" length="5.00" nVehEntered="31"/>
    <interval begin="0.00" end="3600.00" id="402:10Din" nVehContrib="0" flow="0.00" occupancy="0.00" speed="-1.00" harmonicMeanSpeed="-1.00" length="-1.00" nVehEntered="0"/>
    <interval begin="0.00" end="3600.00" id="402:12Din" nVehContrib="0" flow="0.00" occupancy="0.00" speed="-1.00" harmonicMeanSpeed="-1.00" length="-1.00" nVehEntered="0"/>
    <interval begin="0.00" end="3600.00" id="402:14Din" nVehContrib="6" flow="6.00" occupancy="0.06" speed="13.46" harmonicMeanSpeed="12.96" length="5.00" nVehEntered="6"/>
    <interval begin="0.00" end="3600.00" id="402:16Din" nVehContrib="0" flow="0.00" occupancy="0.00" speed="-1.00" harmonicMeanSpeed="-1.00" length="-1.00" nVehEntered="0"/>
    <interval begin="0.00" end="3600.00" id="402:18Din" nVehContrib="7" flow="7.00" occupancy="0.07" speed="14.54" harmonicMeanSpeed="14.22" length="5.00" nVehEntered="7"/>
    <interval begin="0.00" end="3600.00" id="402:1Din" nVehContrib="37" flow="37.00" occupancy="0.23" speed="22.94" harmonicMeanSpeed="22.72" length="5.00" nVehEntered="37"/>
    <interval begin="0.00" end="3600.00" id="402:3Din" nVehContrib="2" flow="2.00" occupancy="0.01" speed="27.32" harmonicMeanSpeed="27.32" length="5.00" nVehEntered="2"/>
    <interval begin="0.00" end="3600.00" id="402:5Din" nVehContrib="0" flow="0.00" occupancy="0.00" speed="-1.00" harmonicMeanSpeed="-1.00" length="-1.00" nVehEntered="0"/>
    <interval begin="0.00" end="3600.00" id="404:13Din" nVehContrib="27" flow="27.00" occupancy="0.19" speed="22.78" harmonicMeanSpeed="20.19" length="5.00" nVehEntered="27"/>
    <interval begin="0.00" end="3600.00" id="404:15Din" nVehContrib="3" flow="3.00" occupancy="0.02" speed="24.49" harmonicMeanSpeed="19.66" length="5.00" nVehEntered="3"/>
    <interval begin="0.00" end="3600.00" id="404:17Din" nVehContrib="4" flow="4.00" occupancy="0.10" speed="5.50" harmonicMeanSpeed="5.44" length="5.00" nVehEntered="4"/>
    <interval begin="0.00" end="3600.00" id="404:20Din" nVehContrib="9" flow="9.00" occupancy="0.05" speed="26.51" harmonicMeanSpeed="26.35" length="5.00" nVehEntered="9"/>
    <interval begin="0.00" end="3600.00" id="404:21Din" nVehContrib="0" flow="0.00" occupancy="0.00" speed="-1.00" harmonicMeanSpeed="-1.00" length="-1.00" nVehEntered="0"/>
    <interval begin="0.00" end="3600.00" id="404:23Din" nVehContrib="0" flow="0.00" occupancy="0.00" speed="-1.00" harmonicMeanSpeed="-1.00" length="-1.00" nVehEntered="0"/>
    <interval begin="0.00" end="3600.00" id="404:1Din" nVehContrib="13" flow="13.00" occupancy="0.07" speed="27.31" harmonicMeanSpeed="26.77" length="5.00" nVehEntered="13"/>
    <interval begin="0.00" end="3600.00" id="404:3Din" nVehContrib="8" flow="8.00" occupancy="0.04" speed="27.81" harmonicMeanSpeed="27.52" length="5.00" nVehEntered="8"/>
    <interval begin="0.00" end="3600.00" id="404:5Din" nVehContrib="5" flow="5.00" occupancy="0.03" speed="25.07" harmonicMeanSpeed="24.81" length="5.00" nVehEntered="5"/>
    <interval begin="0.00" end="3600.00" id="404:8Din" nVehContrib="27" flow="27.00" occupancy="0.15" speed="26.07" harmonicMeanSpeed="24.45" length="5.00" nVehEntered="27"/>
    <interval begin="0.00" end="3600.00" id="404:9Din" nVehContrib="5" flow="5.00" occupancy="0.03" speed="25.99" harmonicMeanSpeed="25.89" length="5.00" nVehEntered="5"/>
    <interval begin="0.00" end="3600.00" id="404:11Din" nVehContrib="4" flow="4.00" occupancy="0.02" speed="29.42" harmonicMeanSpeed="29.37" length="5.00" nVehEntered="4"/>
    <interval begin="0.00" end="3600.00" id="306:9Din" nVehContrib="15" flow="15.00" occupancy="0.81" speed="2.59" harmonicMeanSpeed="2.57" length="5.00" nVehEntered="15"/>
    <interval begin="0.00" end="3600.00" id="306:11Din" nVehContrib="0" flow="0.00" occupancy="0.00" speed="-1.00" harmonicMeanSpeed="-1.00" length="-1.00" nVehEntered="0"/>
    <interval begin="0.00" end="3600.00" id="306:13Din" nVehContrib="0" flow="0.00" occupancy="0.00" speed="-1.00" harmonicMeanSpeed="-1.00" length="-1.00" nVehEntered="0"/>
    <interval begin="0.00" end="3600.00" id="306:15Din" nVehContrib="16" flow="16.00" occupancy="0.86" speed="2.60" harmonicMeanSpeed="2.59" length="5.00" nVehEntered="16"/>
    <interval begin="0.00" end="3600.00" id="306:17Din" nVehContrib="0" flow="0.00" occupancy="0.00" speed="-1.00" harmonicMeanSpeed="-1.00" length="-1.00" nVehEntered="0"/>
    <interval begin="0.00" end="3600.00" id="306:19Din" nVehContrib="0" flow="0.00" occupancy="0.00" speed="-1.00" harmonicMeanSpeed="-1.00" length="-1.00" nVehEntered="0"/>
    <interval begin="0.00" end="3600.00" id="306:21Din" nVehContrib="0" flow="0.00" occupancy="0.00" speed="-1.00" harmonicMeanSpeed="-1.00" length="-1.00" nVehEntered="0"/>
    <interval begin="0.00" end="3600.00" id="306:1Din" nVehContrib="14" flow="14.00" occupancy="0.28" speed="7.27" harmonicMeanSpeed="7.22" length="5.00" nVehEntered="15"/>
    <interval begin="0.00" end="3600.00" id="306:3Din" nVehContrib="20" flow="20.00" occupancy="0.20" speed="15.81" harmonicMeanSpeed="13.97" length="5.00" nVehEntered="20"/>
    <interval begin="0.00" end="3600.00" id="306:5Din" nVehContrib="16" flow="16.00" occupancy="0.13" speed="16.80" harmonicMeanSpeed="16.76" length="5.00" nVehEntered="16"/>
    <interval begin="0.00" end="3600.00" id="306:7Din" nVehContrib="2" flow="2.00" occupancy="0.02" speed="16.75" harmonicMeanSpeed="16.72" length="5.00" nVehEntered="2"/>
    <interval begin="0.00" end="3600.00" id="306:27Din" nVehContrib="1" flow="1.00" occupancy="0.01" speed="13.75" harmonicMeanSpeed="13.75" length="5.00" nVehEntered="1"/>
    <interval begin="0.00" end="3600.00" id="306:29Din" nVehContrib="6" flow="6.00" occupancy="0.06" speed="17.87" harmonicMeanSpeed="14.13" length="5.00" nVehEntered="6"/>
    <interval begin="0.00" end="3600.00" id="306:31Din" nVehContrib="2" flow="2.00" occupancy="0.03" speed="10.21" harmonicMeanSpeed="10.05" length="5.00" nVehEntered="2"/>
    <interval begin="0.00" end="3600.00" id="306:23Din" nVehContrib="14" flow="14.00" occupancy="0.10" speed="24.98" harmonicMeanSpeed="20.12" length="5.00" nVehEntered="14"/>
    <interval begin="0.00" end="3600.00" id="306:25Din" nVehContrib="14" flow="14.00" occupancy="0.18" speed="12.63" harmonicMeanSpeed="10.80" length="5.00" nVehEntered="14"/>
    <interval begin="0.00" end="3600.00" id="velocity0" nVehContrib="5" flow="5.00" occupancy="0.03" speed="26.62" harmonicMeanSpeed="26.42" length="5.00" nVehEntered="5"/>
    <interval begin="0.00" end="3600.00" id="velocity1" nVehContrib="0" flow="0.00" occupancy="0.00" speed="-1.00" harmonicMeanSpeed="-1.00" length="-1.00" nVehEntered="0"/>
    <interval begin="0.00" end="3600.00" id="velocity2" nVehContrib="0" flow="0.00" occupancy="0.00" speed="-1.00" harmonicMeanSpeed="-1.00" length="-1.00" nVehEntered="0"/>
    <interval begin="3600.00" end="7200.00" id="601:1Din" nVehContrib="3" flow="3.00" occupancy="0.02" speed="21.87" harmonicMeanSpeed="18.06" length="5.00" nVehEntered="3"/>
    <interval begin="3600.00" end="7200.00" id="601:3Din" nVehContrib="2" flow="2.00" occupancy="0.03" speed="11.16" harmonicMeanSpeed="11.05" length="5.00" nVehEntered="2"/>
    <interval begin="3600.00" end="7200.00" id="601:9Din" nVehContrib="2" flow="2.00" occupancy="0.12" speed="2.37" harmonicMeanSpeed="2.37" length="5.00" nVehEntered="2"/>
    <interval begin="3600.00" end="7200.00" id="601:5Din" nVehContrib="0" flow="0.00" occupancy="0.00" speed="-1.00" harmonicMeanSpeed="-1.00" length="-1.00" nVehEntered="0"/>
    <interval begin="3600.00" end="7200.00" id="601:7Din" nVehContrib="0" flow="0.00" occupancy="0.00" speed="-1.00" harmonicMeanSpeed="-1.00" length="-1.00" nVehEntered="0"/>
    <interval begin="3600.00" end="7200.00" id="601:11Din" nVehContrib="4" flow="4.00" occupancy="0.22" speed="2.51" harmonicMeanSpeed="2.49" length="5.00" nVehEntered="4"/>
    <interval begin="3600.00" end="7200.00" id="601:13Din" nVehContrib="1" flow="1.00" occupancy="0.02" speed="6.99" harmonicMeanSpeed="6.99" length="5.00" nVehEntered="1"/>
    <interval begin="3600.00" end="7200.00" id="601:15Din" nVehContrib="1" flow="1.00" occupancy="0.02" speed="8.17" harmonicMeanSpeed="8.17" length="5.00" nVehEntered="1"/>
    <interval begin="3600.00" end="7200.00" id="601:17Din" nVehContrib="0" flow="0.00" occupancy="0.00" speed="-1.00" harmonicMeanSpeed="-1.00" length="-1.00" nVehEntered="0"/>
    <interval begin="3600.00" end="7200.00" id="502:19Din" nVehContrib="8" flow="8.00" occupancy="0.51" speed="2.46" harmonicMeanSpeed="2.45" length="5.00" nVehEntered="9"/>
    <interval begin="3600.00" end="7200.00" id="502:21Din" nVehContrib="1" flow="1.00" occupancy="0.03" speed="4.69" harmonicMeanSpeed="4.69" length="5.00" nVehEntered="1"/>
    <interval begin="3600.00" end="7200.00" id="502:23Din" nVehContrib="0" flow="0.00" occupancy="0.00" speed="-1.00" harmonicMeanSpeed="-1.00" length="-1.00" nVehEntered="0"/>
    <interval begin="3600.00" end="7200.00" id="502:17Din" nVehContrib="6" flow="6.00" occupancy="0.11" speed="7.32" harmonicMeanSpeed="7.27" length="5.00" nVehEntered="6"/>
    <interval begin="3600.00" end="7200.00" id="502:15Din" nVehContrib="18" flow="18.00" occupancy="0.31" speed="8.95" harmonicMeanSpeed="8.05" length="5.00" nVehEntered="18"/>
    <interval begin="3600.00" end="7200.00" id="502:13Din" nVehContrib="1" flow="1.00" occupancy="0.00" speed="29.25" harmonicMeanSpeed="29.25" length="5.00" nVehEntered="1"/>
    <interval begin="3600.00" end="7200.00" id="502:11Din" nVehContrib="5" flow="5.00" occupancy="0.04" speed="19.70" harmonicMeanSpeed="15.89" length="5.00" nVehEntered="5"/>
    <interval begin="3600.00" end="7200.00" id="502:1Din" nVehContrib="9" flow="9.00" occupancy="0.09" speed="18.02" harmonicMeanSpeed="14.61" length="5.00" nVehEntered="9"/>
    <interval begin="3600.00" end="7200.00" id="502:3Din" nVehContrib="0" flow="0.00" occupancy="0.00" speed="-1.00" harmonicMeanSpeed="-1.00" length="-1.00" nVehEntered="0"/>
    <interval begin="3600.00" end="7200.00" id="502:5Din" nVehContrib="0" flow="0.00" occupancy="0.00" speed="-1.00" harmonicMeanSpeed="-1.00" length="-1.00" nVehEntered="0"/>
    <interval begin="3600.00" end="7200.00" id="502:7Din" nVehContrib="5" flow="5.00" occupancy="0.28" speed="2.49" harmonicMeanSpeed="2.49" length="5.00" nVehEntered="5"/>
    <interval begin="3600.00" end="7200.00" id="502:9Din" nVehContrib="2" flow="2.00" occupancy="0.05" speed="5.45" harmonicMeanSpeed="5.44" length="5.00" nVehEntered="2"/>
    <interval begin="3600.00" end="7200.00" id="302:9Din" nVehContrib="4" flow="4.00" occupancy="0.08" speed="7.26" harmonicMeanSpeed="7.26" length="5.00" nVehEntered="4"/>
    <interval begin="3600.00" end="7200.00" id="302:11Din" nVehContrib="2" flow="2.00" occupancy="0.03" speed="8.20" harmonicMeanSpeed="8.18" length="5.00" nVehEntered="2"/>
    <interval begin="3600.00" end="7200.00" id="302:13Din" nVehContrib="1" flow="1.00" occupancy="0.01" speed="27.61" harmonicMeanSpeed="27.61" length="5.00" nVehEntered="1"/>
    <interval begin="3600.00" end="7200.00" id="302:15Din" nVehContrib="1" flow="1.00" occupancy="0.00" speed="31.00" harmonicMeanSpeed="31.00" length="5.00" nVehEntered="1"/>
    <interval begin="3600.00" end="7200.00" id="302:17Din" nVehContrib="3" flow="3.00" occupancy="0.02" speed="18.45" harmonicMeanSpeed="18.23" length="5.00" nVehEntered="3"/>
    <interval begin="3600.00" end="7200.00" id="302:19Din" nVehContrib="1" flow="1.00" occupancy="0.01" speed="15.55" harmonicMeanSpeed="15.55" length="5.00" nVehEntered="1"/>
    <interval begin="3600.00" end="7200.00" id="302:21Din" nVehContrib="7" flow="7.00" occupancy="0.06" speed="17.25" harmonicMeanSpeed="16.83" length="5.00" nVehEntered="7"/>
    <interval begin="3600.00" end="7200.00" id="302:22Din" nVehContrib="0" flow="0.00" occupancy="0.00" speed="-1.00" harmonicMeanSpeed="-1.00" length="-1.00" nVehEntered="0"/>
    <interval begin="3600.00" end="7200.00" id="302:24Din" nVehContrib="0" flow="0.00" occupancy="0.00" speed="-1.00" harmonicMeanSpeed="-1.00" length="-1.00" nVehEntered="0"/>
    <interval begin="3600.00" end="7200.00" id="302:25Din" nVehContrib="6" flow="6.00" occupancy="4.72" speed="2.58" harmonicMeanSpeed="0.18" length="5.00" nVehEntered="6"/>
    <interval begin="3600.00" end="7200.00" id="302:27Din" nVehContrib="1" flow="1.00" occupancy="0.01" speed="27.68" harmonicMeanSpeed="27.68" length="5.00" nVehEntered="1"/>
    <interval begin="3600.00" end="7200.00" id="302:29Din" nVehContrib="2" flow="2.00" occupancy="0.42" speed="6.32" harmonicMeanSpeed="0.66" length="5.00" nVehEntered="2"/>
    <interval begin="3600.00" end="7200.00" id="302:1Din" nVehContrib="4" flow="4.00" occupancy="0.02" speed="25.43" harmonicMeanSpeed="25.09" length="5.00" nVehEntered="4"/>
    <interval begin="3600.00" end="7200.00" id="302:3Din" nVehContrib="0" flow="0.00" occupancy="0.00" speed="-1.00" harmonicMeanSpeed="-1.00" length="-1.00" nVehEntered="0"/>
    <interval begin="3600.00" end="7200.00" id="302:5Din" nVehContrib="1" flow="1.00" occupancy="0.01" speed="22.80" harmonicMeanSpeed="22.80" length="5.00" nVehEntered="1"/>
    <interval begin="3600.00" end="7200.00" id="302:7Din" nVehContrib="4" flow="4.00" occupancy="0.02" speed="24.68" harmonicMeanSpeed="24.48" length="5.00" nVehEntered="4"/>
    <interval begin="3600.00" end="7200.00" id="402:8Din" nVehContrib="8" flow="8.00" occupancy="0.44" speed="2.56" harmonicMeanSpeed="2.55" length="5.00" nVehEntered="8"/>
    <interval begin="3600.00" end="7200.00" id="402:10Din" nVehContrib="0" flow="0.00" occupancy="0.00" speed="-1.00" harmonicMeanSpeed="-1.00" length="-1.00" nVehEntered="0"/>
    <interval begin="3600.00" end="7200.00" id="402:12Din" nVehContrib="0" flow="0.00" occupancy="0.00" speed="-1.00" harmonicMeanSpeed="-1.00" length="-1.00" nVehEntered="0"/>
    <interval begin="3600.00" end="7200.00" id="402:14Din" nVehContrib="0" flow="0.00" occupancy="0.00" speed="-1.00" harmonicMeanSpeed="-1.00" length="-1.00" nVehEntered="0"/>
    <interval begin="3600.00" end="7200.00" id="402:16Din" nVehContrib="0" flow="0.00" occupancy="0.00" speed="-1.00" harmonicMeanSpeed="-1.00" length="-1.00" nVehEntered="0"/>
    <interval begin="3600.00" end="7200.00" id="402:18Din" nVehContrib="1" flow="1.00" occupancy="0.01" speed="11.62" harmonicMeanSpeed="11.62" length="5.00" nVehEntered="1"/>
    <interval begin="3600.00" end="7200.00" id="402:1Din" nVehContrib="21" flow="21.00" occupancy="0.13" speed="23.10" harmonicMeanSpeed="22.86" length="5.00" nVehEntered="21"/>
    <interval begin="3600.00" end="7200.00" id="402:3Din" nVehContrib="1" flow="1.00" occupancy="0.01" speed="27.07" harmonicMeanSpeed="27.07" length="5.00" nVehEntered="1"/>
    <interval begin="3600.00" end="7200.00" id="402:5Din" nVehContrib="0" flow="0.00" occupancy="0.00" speed="-1.00" harmonicMeanSpeed="-1.00" length="-1.00" nVehEntered="0"/>
    <interval begin="3600.00" end="7200.00" id="404:13Din" nVehContrib="6" flow="6.00" occupancy="0.06" speed="17.44" harmonicMeanSpeed="14.19" length="5.00" nVehEntered="6"/>
    <interval begin="3600.00" end="7200.00" id="404:15Din" nVehContrib="2" flow="2.00" occupancy="0.02" speed="19.69" harmonicMeanSpeed="13.90" length="5.00" nVehEntered="2"/>
    <interval begin="3600.00" end="7200.00" id="404:17Din" nVehContrib="3" flow="3.00" occupancy="0.06" speed="6.64" harmonicMeanSpeed="6.63" length="5.00" nVehEntered="3"/>
    <interval begin="3600.00" end="7200.00" id="404:20Din" nVehContrib="1" flow="1.00" occupancy="0.01" speed="27.72" harmonicMeanSpeed="27.72" length="5.00" nVehEntered="1"/>
    <interval begin="3600.00" end="7200.00" id="404:21Din" nVehContrib="0" flow="0.00" occupancy="0.00" speed="-1.00" harmonicMeanSpeed="-1.00" length="-1.00" nVehEntered="0"/>
    <interval begin="3600.00" end="7200.00" id="404:23Din" nVehContrib="0" flow="0.00" occupancy="0.00" speed="-1.00" harmonicMeanSpeed="-1.00" length="-1.00" nVehEntered="0"/>
    <interval begin="3600.00" end="7200.00" id="404:1Din" nVehContrib="6" flow="6.00" occupancy="0.03" speed="28.72" harmonicMeanSpeed="28.39" length="5.00" nVehEntered="6"/>
    <interval begin="3600.00" end="7200.00" id="404:3Din" nVehContrib="5" flow="5.00" occupancy="0.03" speed="27.38" harmonicMeanSpeed="27.36" length="5.00" nVehEntered="5"/>
    <interval begin="3600.00" end="7200.00" id="404:5Din" nVehContrib="2" flow="2.00" occupancy="0.01" speed="23.38" harmonicMeanSpeed="23.37" length="5.00" nVehEntered="2"/>
    <interval begin="3600.00" end="7200.00" id="404:8Din" nVehContrib="13" flow="13.00" occupancy="0.09" speed="24.03" harmonicMeanSpeed="19.36" length="5.00" nVehEntered="13"/>
    <interval begin="3600.00" end="7200.00" id="404:9Din" nVehContrib="0" flow="0.00" occupancy="0.00" speed="-1.00" harmonicMeanSpeed="-1.00" length="-1.00" nVehEntered="0"/>
    <interval begin="3600.00" end="7200.00" id="404:11Din" nVehContrib="3" flow="3.00" occupancy="0.01" speed="30.43" harmonicMeanSpeed="30.37" length="5.00" nVehEntered="3"/>
    <interval begin="3600.00" end="7200.00" id="306:9Din" nVehContrib="8" flow="8.00" occupancy="0.45" speed="2.50" harmonicMeanSpeed="2.49" length="5.00" nVehEntered="8"/>
    <interval begin="3600.00" end="7200.00" id="306:11Din" nVehContrib="0" flow="0.00" occupancy="0.00" speed="-1.00" harmonicMeanSpeed="-1.00" length="-1.00" nVehEntered="0"/>
    <interval begin="3600.00" end="7200.00" id="306:13Din" nVehContrib="0" flow="0.00" occupancy="0.00" speed="-1.00" harmonicMeanSpeed="-1.00" length="-1.00" nVehEntered="0"/>
    <interval begin="3600.00" end="7200.00" id="306:15Din" nVehContrib="7" flow="7.00" occupancy="0.39" speed="2.48" harmonicMeanSpeed="2.48" length="5.00" nVehEntered="7"/>
    <interval begin="3600.00" end="7200.00" id="306:17Din" nVehContrib="0" flow="0.00" occupancy="0.00" speed="-1.00" harmonicMeanSpeed="-1.00" length="-1.00" nVehEntered="0"/>
    <interval begin="3600.00" end="7200.00" id="306:19Din" nVehContrib="0" flow="0.00" occupancy="0.00" speed="-1.00" harmonicMeanSpeed="-1.00" length="-1.00" nVehEntered="0"/>
    <interval begin="3600.00" end="7200.00" id="306:21Din" nVehContrib="0" flow="0.00" occupancy="0.00" speed="-1.00" harmonicMeanSpeed="-1.00" length="-1.00" nVehEntered="0"/>
    <interval begin="3600.00" end="7200.00" id="306:1Din" nVehContrib="6" flow="6.00" occupancy="0.11" speed="7.48" harmonicMeanSpeed="7.38" length="5.00" nVehEntered="6"/>
    <interval begin="3600.00" end="7200.00" id="306:3Din" nVehContrib="6" flow="6.00" occupancy="0.05" speed="17.39" harmonicMeanSpeed="17.38" length="5.00" nVehEntered="6"/>
    <interval begin="3600.00" end="7200.00" id="306:5Din" nVehContrib="7" flow="7.00" occupancy="0.06" speed="16.91" harmonicMeanSpeed="16.89" length="5.00" nVehEntered="7"/>
    <interval begin="3600.00" end="7200.00" id="306:7Din" nVehContrib="2" flow="2.00" occupancy="0.02" speed="18.31" harmonicMeanSpeed="18.31" length="5.00" nVehEntered="2"/>
    <interval begin="3600.00" end="7200.00" id="306:27Din" nVehContrib="2" flow="2.00" occupancy="0.02" speed="11.97" harmonicMeanSpeed="11.66" length="5.00" nVehEntered="2"/>
    <interval begin="3600.00" end="7200.00" id="306:29Din" nVehContrib="3" flow="3.00" occupancy="0.03" speed="20.62" harmonicMeanSpeed="16.55" length="5.00" nVehEntered="3"/>
    <interval begin="3600.00" end="7200.00" id="306:31Din" nVehContrib="1" flow="1.00" occupancy="0.01" speed="9.67" harmonicMeanSpeed="9.67" length="5.00" nVehEntered="1"/>
    <interval begin="3600.00" end="7200.00" id="306:23Din" nVehContrib="8" flow="8.00" occupancy="0.12" speed="14.48" harmonicMeanSpeed="9.65" length="5.00" nVehEntered="8"/>
    <interval begin="3600.00" end="7200.00" id="306:25Din" nVehContrib="4" flow="4.00" occupancy="0.06" speed="9.31" harmonicMeanSpeed="8.86" length="5.00" nVehEntered="4"/>
    <interval begin="3600.00" end="7200.00" id="velocity0" nVehContrib="3" flow="3.00" occupancy="0.02" speed="27.76" harmonicMeanSpeed="27.53" length="5.00" nVehEntered="3"/>
    <interval begin="3600.00" end="7200.00" id="velocity1" nVehContrib="0" flow="0.00" occupancy="0.00" speed="-1.00" harmonicMeanSpeed="-1.00" length="-1.00" nVehEntered="0"/>
    <interval begin="3600.00" end="7200.00" id="velocity2" nVehContrib="1" flow="1.00" occupancy="0.01" speed="27.01" harmonicMeanSpeed="27.01" length="5.00" nVehEntered="1"/>
    <interval begin="7200.00" end="10800.00" id="601:1Din" nVehContrib="3" flow="3.00" occupancy="0.01" speed="29.33" harmonicMeanSpeed="29.11" length="5.00" nVehEntered="3"/>
    <interval begin="7200.00" end="10800.00" id="601:3Din" nVehContrib="3" flow="3.00" occupancy="0.04" speed="11.36" harmonicMeanSpeed="11.35" length="5.00" nVehEntered="3"/>
    <interval begin="7200.00" end="10800.00" id="601:9Din" nVehContrib="2" flow="2.00" occupancy="0.11" speed="2.56" harmonicMeanSpeed="2.55" length="5.00" nVehEntered="2"/>
    <interval begin="7200.00" end="10800.00" id="601:5Din" nVehContrib="0" flow="0.00" occupancy="0.00" speed="-1.00" harmonicMeanSpeed="-1.00" length="-1.00" nVehEntered="0"/>
    <interval begin="7200.00" end="10800.00" id="601:7Din" nVehContrib="1" flow="1.00" occupancy="0.02" speed="5.61" harmonicMeanSpeed="5.61" length="5.00" nVehEntered="1"/>
    <interval begin="7200.00" end="10800.00" id="601:11Din" nVehContrib="1" flow="1.00" occupancy="0.06" speed="2.49" harmonicMeanSpeed="2.49" length="5.00" nVehEntered="1"/>
    <interval begin="7200.00" end="10800.00" id="601:13Din" nVehContrib="2" flow="2.00" occupancy="0.04" speed="7.17" harmonicMeanSpeed="7.17" length="5.00" nVehEntered="2"/>
    <interval begin="7200.00" end="10800.00" id="601:15Din" nVehContrib="0" flow="0.00" occupancy="0.00" speed="-1.00" harmonicMeanSpeed="-1.00" length="-1.00" nVehEntered="0"/>