<?xml version="1.0" encoding="UTF-8"?>

<!-- generated on 2022-03-28 21:25:51 by Eclipse SUMO sumo Version v1_12_0+1690-4ac71137f5c
<configuration xmlns:xsi="http://www.w3.org/2001/XMLSchema-instance" xsi:noNamespaceSchemaLocation="http://sumo.dlr.de/xsd/sumoConfiguration.xsd">

    <input>
        <net-file value="/home/radoslav/PycharmProjects/SumoTD/simulation/updated.net.xml"/>
        <route-files value="/home/radoslav/PycharmProjects/SumoTD/simulation/Data/Out/DUAout.xml"/>
        <additional-files value="/home/radoslav/PycharmProjects/SumoTD/simulation/additional.xml,/home/radoslav/PycharmProjects/SumoTD/simulation/Data/Out/Vtype.xml"/>
    </input>

    <output>
        <statistic-output value="/home/radoslav/PycharmProjects/SumoTD/simulation/stat.xml"/>
    </output>

    <time>
        <end value="86400"/>
    </time>

    <processing>
        <ignore-route-errors value="true"/>
        <collision.action value="teleport"/>
        <time-to-teleport value="3600"/>
    </processing>

    <routing>
        <device.rerouting.adaptation-steps value="18"/>
        <device.rerouting.adaptation-interval value="10"/>
    </routing>

    <report>
        <verbose value="true"/>
        <log value="/home/radoslav/PycharmProjects/SumoTD/simulation/log.xml"/>
        <duration-log.statistics value="true"/>
    </report>

    <gui_only>
        <gui-settings-file value="/home/radoslav/PycharmProjects/SumoTD/simulation/osm.view.xml"/>
    </gui_only>

</configuration>
-->

<detector xmlns:xsi="http://www.w3.org/2001/XMLSchema-instance" xsi:noNamespaceSchemaLocation="http://sumo.dlr.de/xsd/det_e1_file.xsd">
    <interval begin="0.00" end="3600.00" id="601:1Din" nVehContrib="4" flow="4.00" occupancy="0.03" speed="21.36" harmonicMeanSpeed="21.32" length="5.00" nVehEntered="4"/>
    <interval begin="0.00" end="3600.00" id="601:3Din" nVehContrib="0" flow="0.00" occupancy="0.00" speed="-1.00" harmonicMeanSpeed="-1.00" length="-1.00" nVehEntered="0"/>
    <interval begin="0.00" end="3600.00" id="601:9Din" nVehContrib="0" flow="0.00" occupancy="0.00" speed="-1.00" harmonicMeanSpeed="-1.00" length="-1.00" nVehEntered="0"/>
    <interval begin="0.00" end="3600.00" id="601:5Din" nVehContrib="0" flow="0.00" occupancy="0.00" speed="-1.00" harmonicMeanSpeed="-1.00" length="-1.00" nVehEntered="0"/>
    <interval begin="0.00" end="3600.00" id="601:7Din" nVehContrib="0" flow="0.00" occupancy="0.00" speed="-1.00" harmonicMeanSpeed="-1.00" length="-1.00" nVehEntered="0"/>
    <interval begin="0.00" end="3600.00" id="601:11Din" nVehContrib="0" flow="0.00" occupancy="0.00" speed="-1.00" harmonicMeanSpeed="-1.00" length="-1.00" nVehEntered="0"/>
    <interval begin="0.00" end="3600.00" id="601:13Din" nVehContrib="0" flow="0.00" occupancy="0.00" speed="-1.00" harmonicMeanSpeed="-1.00" length="-1.00" nVehEntered="0"/>
    <interval begin="0.00" end="3600.00" id="601:15Din" nVehContrib="0" flow="0.00" occupancy="0.00" speed="-1.00" harmonicMeanSpeed="-1.00" length="-1.00" nVehEntered="0"/>
    <interval begin="0.00" end="3600.00" id="601:17Din" nVehContrib="2" flow="2.00" occupancy="0.02" speed="15.46" harmonicMeanSpeed="14.85" length="5.00" nVehEntered="2"/>
    <interval begin="0.00" end="3600.00" id="502:19Din" nVehContrib="0" flow="0.00" occupancy="0.00" speed="-1.00" harmonicMeanSpeed="-1.00" length="-1.00" nVehEntered="0"/>
    <interval begin="0.00" end="3600.00" id="502:21Din" nVehContrib="0" flow="0.00" occupancy="0.00" speed="-1.00" harmonicMeanSpeed="-1.00" length="-1.00" nVehEntered="0"/>
    <interval begin="0.00" end="3600.00" id="502:23Din" nVehContrib="0" flow="0.00" occupancy="0.00" speed="-1.00" harmonicMeanSpeed="-1.00" length="-1.00" nVehEntered="0"/>
    <interval begin="0.00" end="3600.00" id="502:17Din" nVehContrib="0" flow="0.00" occupancy="0.00" speed="-1.00" harmonicMeanSpeed="-1.00" length="-1.00" nVehEntered="0"/>
    <interval begin="0.00" end="3600.00" id="502:15Din" nVehContrib="92" flow="92.00" occupancy="0.91" speed="18.88" harmonicMeanSpeed="14.10" length="5.00" nVehEntered="92"/>
    <interval begin="0.00" end="3600.00" id="502:13Din" nVehContrib="0" flow="0.00" occupancy="0.00" speed="-1.00" harmonicMeanSpeed="-1.00" length="-1.00" nVehEntered="0"/>
    <interval begin="0.00" end="3600.00" id="502:11Din" nVehContrib="0" flow="0.00" occupancy="0.00" speed="-1.00" harmonicMeanSpeed="-1.00" length="-1.00" nVehEntered="0"/>
    <interval begin="0.00" end="3600.00" id="502:1Din" nVehContrib="7" flow="7.00" occupancy="0.05" speed="19.27" harmonicMeanSpeed="17.80" length="5.00" nVehEntered="7"/>
    <interval begin="0.00" end="3600.00" id="502:3Din" nVehContrib="0" flow="0.00" occupancy="0.00" speed="-1.00" harmonicMeanSpeed="-1.00" length="-1.00" nVehEntered="0"/>
    <interval begin="0.00" end="3600.00" id="502:5Din" nVehContrib="1" flow="1.00" occupancy="0.01" speed="14.80" harmonicMeanSpeed="14.80" length="5.00" nVehEntered="1"/>
    <interval begin="0.00" end="3600.00" id="502:7Din" nVehContrib="0" flow="0.00" occupancy="0.00" speed="-1.00" harmonicMeanSpeed="-1.00" length="-1.00" nVehEntered="0"/>
    <interval begin="0.00" end="3600.00" id="502:9Din" nVehContrib="0" flow="0.00" occupancy="0.00" speed="-1.00" harmonicMeanSpeed="-1.00" length="-1.00" nVehEntered="0"/>
    <interval begin="0.00" end="3600.00" id="302:9Din" nVehContrib="18" flow="18.00" occupancy="0.33" speed="7.65" harmonicMeanSpeed="7.60" length="5.00" nVehEntered="18"/>
    <interval begin="0.00" end="3600.00" id="302:11Din" nVehContrib="2" flow="2.00" occupancy="0.01" speed="24.22" harmonicMeanSpeed="24.19" length="5.00" nVehEntered="2"/>
    <interval begin="0.00" end="3600.00" id="302:13Din" nVehContrib="0" flow="0.00" occupancy="0.00" speed="-1.00" harmonicMeanSpeed="-1.00" length="-1.00" nVehEntered="0"/>
    <interval begin="0.00" end="3600.00" id="302:15Din" nVehContrib="0" flow="0.00" occupancy="0.00" speed="-1.00" harmonicMeanSpeed="-1.00" length="-1.00" nVehEntered="0"/>
    <interval begin="0.00" end="3600.00" id="302:17Din" nVehContrib="0" flow="0.00" occupancy="0.00" speed="-1.00" harmonicMeanSpeed="-1.00" length="-1.00" nVehEntered="0"/>
    <interval begin="0.00" end="3600.00" id="302:19Din" nVehContrib="0" flow="0.00" occupancy="0.00" speed="-1.00" harmonicMeanSpeed="-1.00" length="-1.00" nVehEntered="0"/>
    <interval begin="0.00" end="3600.00" id="302:21Din" nVehContrib="0" flow="0.00" occupancy="0.00" speed="-1.00" harmonicMeanSpeed="-1.00" length="-1.00" nVehEntered="0"/>
    <interval begin="0.00" end="3600.00" id="302:22Din" nVehContrib="0" flow="0.00" occupancy="0.00" speed="-1.00" harmonicMeanSpeed="-1.00" length="-1.00" nVehEntered="0"/>
    <interval begin="0.00" end="3600.00" id="302:24Din" nVehContrib="24" flow="24.00" occupancy="0.17" speed="19.29" harmonicMeanSpeed="19.24" length="5.00" nVehEntered="24"/>
    <interval begin="0.00" end="3600.00" id="302:25Din" nVehContrib="0" flow="0.00" occupancy="0.00" speed="-1.00" harmonicMeanSpeed="-1.00" length="-1.00" nVehEntered="0"/>
    <interval begin="0.00" end="3600.00" id="302:27Din" nVehContrib="0" flow="0.00" occupancy="0.00" speed="-1.00" harmonicMeanSpeed="-1.00" length="-1.00" nVehEntered="0"/>
    <interval begin="0.00" end="3600.00" id="302:29Din" nVehContrib="20" flow="20.00" occupancy="9.85" speed="4.35" harmonicMeanSpeed="0.28" length="5.00" nVehEntered="20"/>
    <interval begin="0.00" end="3600.00" id="302:1Din" nVehContrib="13" flow="13.00" occupancy="0.07" speed="25.80" harmonicMeanSpeed="25.71" length="5.00" nVehEntered="13"/>
    <interval begin="0.00" end="3600.00" id="302:3Din" nVehContrib="0" flow="0.00" occupancy="0.00" speed="-1.00" harmonicMeanSpeed="-1.00" length="-1.00" nVehEntered="0"/>
    <interval begin="0.00" end="3600.00" id="302:5Din" nVehContrib="0" flow="0.00" occupancy="0.00" speed="-1.00" harmonicMeanSpeed="-1.00" length="-1.00" nVehEntered="0"/>
    <interval begin="0.00" end="3600.00" id="302:7Din" nVehContrib="7" flow="7.00" occupancy="0.04" speed="27.33" harmonicMeanSpeed="27.30" length="5.00" nVehEntered="7"/>
    <interval begin="0.00" end="3600.00" id="402:8Din" nVehContrib="0" flow="0.00" occupancy="0.00" speed="-1.00" harmonicMeanSpeed="-1.00" length="-1.00" nVehEntered="0"/>
    <interval begin="0.00" end="3600.00" id="402:10Din" nVehContrib="0" flow="0.00" occupancy="0.00" speed="-1.00" harmonicMeanSpeed="-1.00" length="-1.00" nVehEntered="0"/>
    <interval begin="0.00" end="3600.00" id="402:12Din" nVehContrib="0" flow="0.00" occupancy="0.00" speed="-1.00" harmonicMeanSpeed="-1.00" length="-1.00" nVehEntered="0"/>
    <interval begin="0.00" end="3600.00" id="402:14Din" nVehContrib="6" flow="6.00" occupancy="0.06" speed="14.98" harmonicMeanSpeed="14.83" length="5.00" nVehEntered="6"/>
    <interval begin="0.00" end="3600.00" id="402:16Din" nVehContrib="0" flow="0.00" occupancy="0.00" speed="-1.00" harmonicMeanSpeed="-1.00" length="-1.00" nVehEntered="0"/>
    <interval begin="0.00" end="3600.00" id="402:18Din" nVehContrib="0" flow="0.00" occupancy="0.00" speed="-1.00" harmonicMeanSpeed="-1.00" length="-1.00" nVehEntered="0"/>
    <interval begin="0.00" end="3600.00" id="402:1Din" nVehContrib="0" flow="0.00" occupancy="0.00" speed="-1.00" harmonicMeanSpeed="-1.00" length="-1.00" nVehEntered="0"/>
    <interval begin="0.00" end="3600.00" id="402:3Din" nVehContrib="0" flow="0.00" occupancy="0.00" speed="-1.00" harmonicMeanSpeed="-1.00" length="-1.00" nVehEntered="0"/>
    <interval begin="0.00" end="3600.00" id="402:5Din" nVehContrib="45" flow="45.00" occupancy="0.30" speed="20.99" harmonicMeanSpeed="20.96" length="5.00" nVehEntered="45"/>
    <interval begin="0.00" end="3600.00" id="404:13Din" nVehContrib="0" flow="0.00" occupancy="0.00" speed="-1.00" harmonicMeanSpeed="-1.00" length="-1.00" nVehEntered="0"/>
    <interval begin="0.00" end="3600.00" id="404:15Din" nVehContrib="0" flow="0.00" occupancy="0.00" speed="-1.00" harmonicMeanSpeed="-1.00" length="-1.00" nVehEntered="0"/>
    <interval begin="0.00" end="3600.00" id="404:17Din" nVehContrib="29" flow="29.00" occupancy="0.69" speed="6.07" harmonicMeanSpeed="5.87" length="5.00" nVehEntered="29"/>
    <interval begin="0.00" end="3600.00" id="404:20Din" nVehContrib="3" flow="3.00" occupancy="0.02" speed="22.72" harmonicMeanSpeed="22.71" length="5.00" nVehEntered="3"/>
    <interval begin="0.00" end="3600.00" id="404:21Din" nVehContrib="0" flow="0.00" occupancy="0.00" speed="-1.00" harmonicMeanSpeed="-1.00" length="-1.00" nVehEntered="0"/>
    <interval begin="0.00" end="3600.00" id="404:23Din" nVehContrib="13" flow="13.00" occupancy="0.06" speed="28.08" harmonicMeanSpeed="28.01" length="5.00" nVehEntered="13"/>
    <interval begin="0.00" end="3600.00" id="404:1Din" nVehContrib="30" flow="30.00" occupancy="0.59" speed="7.10" harmonicMeanSpeed="7.05" length="5.00" nVehEntered="30"/>
    <interval begin="0.00" end="3600.00" id="404:3Din" nVehContrib="0" flow="0.00" occupancy="0.00" speed="-1.00" harmonicMeanSpeed="-1.00" length="-1.00" nVehEntered="0"/>
    <interval begin="0.00" end="3600.00" id="404:5Din" nVehContrib="0" flow="0.00" occupancy="0.00" speed="-1.00" harmonicMeanSpeed="-1.00" length="-1.00" nVehEntered="0"/>
    <interval begin="0.00" end="3600.00" id="404:8Din" nVehContrib="0" flow="0.00" occupancy="0.00" speed="-1.00" harmonicMeanSpeed="-1.00" length="-1.00" nVehEntered="0"/>
    <interval begin="0.00" end="3600.00" id="404:9Din" nVehContrib="0" flow="0.00" occupancy="0.00" speed="-1.00" harmonicMeanSpeed="-1.00" length="-1.00" nVehEntered="0"/>
    <interval begin="0.00" end="3600.00" id="404:11Din" nVehContrib="33" flow="33.00" occupancy="0.17" speed="27.97" harmonicMeanSpeed="27.73" length="5.00" nVehEntered="33"/>
    <interval begin="0.00" end="3600.00" id="306:9Din" nVehContrib="0" flow="0.00" occupancy="0.00" speed="-1.00" harmonicMeanSpeed="-1.00" length="-1.00" nVehEntered="0"/>
    <interval begin="0.00" end="3600.00" id="306:11Din" nVehContrib="0" flow="0.00" occupancy="0.00" speed="-1.00" harmonicMeanSpeed="-1.00" length="-1.00" nVehEntered="0"/>
    <interval begin="0.00" end="3600.00" id="306:13Din" nVehContrib="0" flow="0.00" occupancy="0.00" speed="-1.00" harmonicMeanSpeed="-1.00" length="-1.00" nVehEntered="0"/>
    <interval begin="0.00" end="3600.00" id="306:15Din" nVehContrib="0" flow="0.00" occupancy="0.00" speed="-1.00" harmonicMeanSpeed="-1.00" length="-1.00" nVehEntered="0"/>
    <interval begin="0.00" end="3600.00" id="306:17Din" nVehContrib="0" flow="0.00" occupancy="0.00" speed="-1.00" harmonicMeanSpeed="-1.00" length="-1.00" nVehEntered="0"/>
    <interval begin="0.00" end="3600.00" id="306:19Din" nVehContrib="0" flow="0.00" occupancy="0.00" speed="-1.00" harmonicMeanSpeed="-1.00" length="-1.00" nVehEntered="0"/>
    <interval begin="0.00" end="3600.00" id="306:21Din" nVehContrib="0" flow="0.00" occupancy="0.00" speed="-1.00" harmonicMeanSpeed="-1.00" length="-1.00" nVehEntered="0"/>
    <interval begin="0.00" end="3600.00" id="306:1Din" nVehContrib="21" flow="21.00" occupancy="0.55" speed="7.75" harmonicMeanSpeed="5.30" length="5.00" nVehEntered="22"/>
    <interval begin="0.00" end="3600.00" id="306:3Din" nVehContrib="35" flow="35.00" occupancy="0.33" speed="19.63" harmonicMeanSpeed="16.80" length="5.00" nVehEntered="51"/>
    <interval begin="0.00" end="3600.00" id="306:5Din" nVehContrib="1" flow="1.00" occupancy="0.01" speed="21.23" harmonicMeanSpeed="21.23" length="5.00" nVehEntered="1"/>
    <interval begin="0.00" end="3600.00" id="306:7Din" nVehContrib="5" flow="5.00" occupancy="0.03" speed="20.95" harmonicMeanSpeed="20.92" length="5.00" nVehEntered="5"/>
    <interval begin="0.00" end="3600.00" id="306:27Din" nVehContrib="11" flow="11.00" occupancy="0.11" speed="14.24" harmonicMeanSpeed="13.59" length="5.00" nVehEntered="11"/>
    <interval begin="0.00" end="3600.00" id="306:29Din" nVehContrib="0" flow="0.00" occupancy="0.00" speed="-1.00" harmonicMeanSpeed="-1.00" length="-1.00" nVehEntered="0"/>
    <interval begin="0.00" end="3600.00" id="306:31Din" nVehContrib="0" flow="0.00" occupancy="0.00" speed="-1.00" harmonicMeanSpeed="-1.00" length="-1.00" nVehEntered="0"/>
    <interval begin="0.00" end="3600.00" id="306:23Din" nVehContrib="0" flow="0.00" occupancy="0.00" speed="-1.00" harmonicMeanSpeed="-1.00" length="-1.00" nVehEntered="0"/>
    <interval begin="0.00" end="3600.00" id="306:25Din" nVehContrib="28" flow="28.00" occupancy="0.42" speed="9.33" harmonicMeanSpeed="9.24" length="5.00" nVehEntered="28"/>
    <interval begin="0.00" end="3600.00" id="velocity0" nVehContrib="13" flow="13.00" occupancy="0.07" speed="25.80" harmonicMeanSpeed="25.49" length="5.00" nVehEntered="13"/>
    <interval begin="0.00" end="3600.00" id="velocity1" nVehContrib="0" flow="0.00" occupancy="0.00" speed="-1.00" harmonicMeanSpeed="-1.00" length="-1.00" nVehEntered="0"/>
    <interval begin="0.00" end="3600.00" id="velocity2" nVehContrib="0" flow="0.00" occupancy="0.00" speed="-1.00" harmonicMeanSpeed="-1.00" length="-1.00" nVehEntered="0"/>
    <interval begin="3600.00" end="7200.00" id="601:1Din" nVehContrib="5" flow="5.00" occupancy="0.05" speed="16.61" harmonicMeanSpeed="14.11" length="5.00" nVehEntered="5"/>
    <interval begin="3600.00" end="7200.00" id="601:3Din" nVehContrib="0" flow="0.00" occupancy="0.00" speed="-1.00" harmonicMeanSpeed="-1.00" length="-1.00" nVehEntered="0"/>
    <interval begin="3600.00" end="7200.00" id="601:9Din" nVehContrib="0" flow="0.00" occupancy="0.00" speed="-1.00" harmonicMeanSpeed="-1.00" length="-1.00" nVehEntered="0"/>
    <interval begin="3600.00" end="7200.00" id="601:5Din" nVehContrib="0" flow="0.00" occupancy="0.00" speed="-1.00" harmonicMeanSpeed="-1.00" length="-1.00" nVehEntered="0"/>
    <interval begin="3600.00" end="7200.00" id="601:7Din" nVehContrib="0" flow="0.00" occupancy="0.00" speed="-1.00" harmonicMeanSpeed="-1.00" length="-1.00" nVehEntered="0"/>
    <interval begin="3600.00" end="7200.00" id="601:11Din" nVehContrib="0" flow="0.00" occupancy="0.00" speed="-1.00" harmonicMeanSpeed="-1.00" length="-1.00" nVehEntered="0"/>
    <interval begin="3600.00" end="7200.00" id="601:13Din" nVehContrib="0" flow="0.00" occupancy="0.00" speed="-1.00" harmonicMeanSpeed="-1.00" length="-1.00" nVehEntered="0"/>
    <interval begin="3600.00" end="7200.00" id="601:15Din" nVehContrib="0" flow="0.00" occupancy="0.00" speed="-1.00" harmonicMeanSpeed="-1.00" length="-1.00" nVehEntered="0"/>
    <interval begin="3600.00" end="7200.00" id="601:17Din" nVehContrib="1" flow="1.00" occupancy="0.01" speed="10.97" harmonicMeanSpeed="10.97" length="5.00" nVehEntered="1"/>
    <interval begin="3600.00" end="7200.00" id="502:19Din" nVehContrib="0" flow="0.00" occupancy="0.00" speed="-1.00" harmonicMeanSpeed="-1.00" length="-1.00" nVehEntered="0"/>
    <interval begin="3600.00" end="7200.00" id="502:21Din" nVehContrib="0" flow="0.00" occupancy="0.00" speed="-1.00" harmonicMeanSpeed="-1.00" length="-1.00" nVehEntered="0"/>
    <interval begin="3600.00" end="7200.00" id="502:23Din" nVehContrib="0" flow="0.00" occupancy="0.00" speed="-1.00" harmonicMeanSpeed="-1.00" length="-1.00" nVehEntered="0"/>
    <interval begin="3600.00" end="7200.00" id="502:17Din" nVehContrib="0" flow="0.00" occupancy="0.00" speed="-1.00" harmonicMeanSpeed="-1.00" length="-1.00" nVehEntered="0"/>
    <interval begin="3600.00" end="7200.00" id="502:15Din" nVehContrib="35" flow="35.00" occupancy="0.39" speed="17.58" harmonicMeanSpeed="12.39" length="5.00" nVehEntered="35"/>
    <interval begin="3600.00" end="7200.00" id="502:13Din" nVehContrib="0" flow="0.00" occupancy="0.00" speed="-1.00" harmonicMeanSpeed="-1.00" length="-1.00" nVehEntered="2"/>
    <interval begin="3600.00" end="7200.00" id="502:11Din" nVehContrib="0" flow="0.00" occupancy="0.00" speed="-1.00" harmonicMeanSpeed="-1.00" length="-1.00" nVehEntered="0"/>
    <interval begin="3600.00" end="7200.00" id="502:1Din" nVehContrib="6" flow="6.00" occupancy="0.04" speed="21.84" harmonicMeanSpeed="19.74" length="5.00" nVehEntered="6"/>
    <interval begin="3600.00" end="7200.00" id="502:3Din" nVehContrib="0" flow="0.00" occupancy="0.00" speed="-1.00" harmonicMeanSpeed="-1.00" length="-1.00" nVehEntered="0"/>
    <interval begin="3600.00" end="7200.00" id="502:5Din" nVehContrib="2" flow="2.00" occupancy="0.02" speed="18.31" harmonicMeanSpeed="17.23" length="5.00" nVehEntered="2"/>
    <interval begin="3600.00" end="7200.00" id="502:7Din" nVehContrib="0" flow="0.00" occupancy="0.00" speed="-1.00" harmonicMeanSpeed="-1.00" length="-1.00" nVehEntered="0"/>
    <interval begin="3600.00" end="7200.00" id="502:9Din" nVehContrib="0" flow="0.00" occupancy="0.00" speed="-1.00" harmonicMeanSpeed="-1.00" length="-1.00" nVehEntered="0"/>
    <interval begin="3600.00" end="7200.00" id="302:9Din" nVehContrib="7" flow="7.00" occupancy="0.13" speed="7.66" harmonicMeanSpeed="7.63" length="5.00" nVehEntered="7"/>
    <interval begin="3600.00" end="7200.00" id="302:11Din" nVehContrib="1" flow="1.00" occupancy="0.01" speed="25.33" harmonicMeanSpeed="25.33" length="5.00" nVehEntered="1"/>
    <interval begin="3600.00" end="7200.00" id="302:13Din" nVehContrib="0" flow="0.00" occupancy="0.00" speed="-1.00" harmonicMeanSpeed="-1.00" length="-1.00" nVehEntered="0"/>
    <interval begin="3600.00" end="7200.00" id="302:15Din" nVehContrib="0" flow="0.00" occupancy="0.00" speed="-1.00" harmonicMeanSpeed="-1.00" length="-1.00" nVehEntered="0"/>
    <interval begin="3600.00" end="7200.00" id="302:17Din" nVehContrib="3" flow="3.00" occupancy="0.02" speed="19.27" harmonicMeanSpeed="19.23" length="5.00" nVehEntered="3"/>
    <interval begin="3600.00" end="7200.00" id="302:19Din" nVehContrib="0" flow="0.00" occupancy="0.00" speed="-1.00" harmonicMeanSpeed="-1.00" length="-1.00" nVehEntered="0"/>
    <interval begin="3600.00" end="7200.00" id="302:21Din" nVehContrib="0" flow="0.00" occupancy="0.00" speed="-1.00" harmonicMeanSpeed="-1.00" length="-1.00" nVehEntered="0"/>
    <interval begin="3600.00" end="7200.00" id="302:22Din" nVehContrib="0" flow="0.00" occupancy="0.00" speed="-1.00" harmonicMeanSpeed="-1.00" length="-1.00" nVehEntered="0"/>
    <interval begin="3600.00" end="7200.00" id="302:24Din" nVehContrib="13" flow="13.00" occupancy="0.09" speed="19.07" harmonicMeanSpeed="19.02" length="5.00" nVehEntered="13"/>
    <interval begin="3600.00" end="7200.00" id="302:25Din" nVehContrib="0" flow="0.00" occupancy="0.00" speed="-1.00" harmonicMeanSpeed="-1.00" length="-1.00" nVehEntered="0"/>
    <interval begin="3600.00" end="7200.00" id="302:27Din" nVehContrib="0" flow="0.00" occupancy="0.00" speed="-1.00" harmonicMeanSpeed="-1.00" length="-1.00" nVehEntered="0"/>
    <interval begin="3600.00" end="7200.00" id="302:29Din" nVehContrib="17" flow="17.00" occupancy="14.15" speed="1.86" harmonicMeanSpeed="0.17" length="5.00" nVehEntered="17"/>
    <interval begin="3600.00" end="7200.00" id="302:1Din" nVehContrib="2" flow="2.00" occupancy="0.01" speed="24.44" harmonicMeanSpeed="24.23" length="5.00" nVehEntered="2"/>
    <interval begin="3600.00" end="7200.00" id="302:3Din" nVehContrib="0" flow="0.00" occupancy="0.00" speed="-1.00" harmonicMeanSpeed="-1.00" length="-1.00" nVehEntered="0"/>
    <interval begin="3600.00" end="7200.00" id="302:5Din" nVehContrib="0" flow="0.00" occupancy="0.00" speed="-1.00" harmonicMeanSpeed="-1.00" length="-1.00" nVehEntered="0"/>
    <interval begin="3600.00" end="7200.00" id="302:7Din" nVehContrib="7" flow="7.00" occupancy="0.04" speed="25.94" harmonicMeanSpeed="25.79" length="5.00" nVehEntered="7"/>
    <interval begin="3600.00" end="7200.00" id="402:8Din" nVehContrib="0" flow="0.00" occupancy="0.00" speed="-1.00" harmonicMeanSpeed="-1.00" length="-1.00" nVehEntered="0"/>
    <interval begin="3600.00" end="7200.00" id="402:10Din" nVehContrib="0" flow="0.00" occupancy="0.00" speed="-1.00" harmonicMeanSpeed="-1.00" length="-1.00" nVehEntered="0"/>
    <interval begin="3600.00" end="7200.00" id="402:12Din" nVehContrib="0" flow="0.00" occupancy="0.00" speed="-1.00" harmonicMeanSpeed="-1.00" length="-1.00" nVehEntered="0"/>
    <interval begin="3600.00" end="7200.00" id="402:14Din" nVehContrib="3" flow="3.00" occupancy="0.03" speed="14.70" harmonicMeanSpeed="14.69" length="5.00" nVehEntered="3"/>
    <interval begin="3600.00" end="7200.00" id="402:16Din" nVehContrib="0" flow="0.00" occupancy="0.00" speed="-1.00" harmonicMeanSpeed="-1.00" length="-1.00" nVehEntered="0"/>
    <interval begin="3600.00" end="7200.00" id="402:18Din" nVehContrib="0" flow="0.00" occupancy="0.00" speed="-1.00" harmonicMeanSpeed="-1.00" length="-1.00" nVehEntered="0"/>
    <interval begin="3600.00" end="7200.00" id="402:1Din" nVehContrib="0" flow="0.00" occupancy="0.00" speed="-1.00" harmonicMeanSpeed="-1.00" length="-1.00" nVehEntered="0"/>
    <interval begin="3600.00" end="7200.00" id="402:3Din" nVehContrib="0" flow="0.00" occupancy="0.00" speed="-1.00" harmonicMeanSpeed="-1.00" length="-1.00" nVehEntered="0"/>
    <interval begin="3600.00" end="7200.00" id="402:5Din" nVehContrib="25" flow="25.00" occupancy="0.17" speed="21.04" harmonicMeanSpeed="21.01" length="5.00" nVehEntered="25"/>
    <interval begin="3600.00" end="7200.00" id="404:13Din" nVehContrib="0" flow="0.00" occupancy="0.00" speed="-1.00" harmonicMeanSpeed="-1.00" length="-1.00" nVehEntered="0"/>
    <interval begin="3600.00" end="7200.00" id="404:15Din" nVehContrib="0" flow="0.00" occupancy="0.00" speed="-1.00" harmonicMeanSpeed="-1.00" length="-1.00" nVehEntered="0"/>
    <interval begin="3600.00" end="7200.00" id="404:17Din" nVehContrib="19" flow="19.00" occupancy="0.42" speed="8.89" harmonicMeanSpeed="6.27" length="5.00" nVehEntered="19"/>
    <interval begin="3600.00" end="7200.00" id="404:20Din" nVehContrib="1" flow="1.00" occupancy="0.01" speed="22.33" harmonicMeanSpeed="22.33" length="5.00" nVehEntered="1"/>
    <interval begin="3600.00" end="7200.00" id="404:21Din" nVehContrib="1" flow="1.00" occupancy="0.01" speed="24.61" harmonicMeanSpeed="24.61" length="5.00" nVehEntered="1"/>
    <interval begin="3600.00" end="7200.00" id="404:23Din" nVehContrib="7" flow="7.00" occupancy="0.04" speed="26.91" harmonicMeanSpeed="26.73" length="5.00" nVehEntered="7"/>
    <interval begin="3600.00" end="7200.00" id="404:1Din" nVehContrib="13" flow="13.00" occupancy="0.26" speed="7.34" harmonicMeanSpeed="7.31" length="5.00" nVehEntered="16"/>
    <interval begin="3600.00" end="7200.00" id="404:3Din" nVehContrib="4" flow="4.00" occupancy="0.14" speed="4.29" harmonicMeanSpeed="3.87" length="5.00" nVehEntered="4"/>
    <interval begin="3600.00" end="7200.00" id="404:5Din" nVehContrib="0" flow="0.00" occupancy="0.00" speed="-1.00" harmonicMeanSpeed="-1.00" length="-1.00" nVehEntered="0"/>
    <interval begin="3600.00" end="7200.00" id="404:8Din" nVehContrib="0" flow="0.00" occupancy="0.00" speed="-1.00" harmonicMeanSpeed="-1.00" length="-1.00" nVehEntered="0"/>
    <interval begin="3600.00" end="7200.00" id="404:9Din" nVehContrib="0" flow="0.00" occupancy="0.00" speed="-1.00" harmonicMeanSpeed="-1.00" length="-1.00" nVehEntered="0"/>
    <interval begin="3600.00" end="7200.00" id="404:11Din" nVehContrib="19" flow="19.00" occupancy="0.10" speed="26.86" harmonicMeanSpeed="26.64" length="5.00" nVehEntered="19"/>
    <interval begin="3600.00" end="7200.00" id="306:9Din" nVehContrib="0" flow="0.00" occupancy="0.00" speed="-1.00" harmonicMeanSpeed="-1.00" length="-1.00" nVehEntered="0"/>
    <interval begin="3600.00" end="7200.00" id="306:11Din" nVehContrib="0" flow="0.00" occupancy="0.00" speed="-1.00" harmonicMeanSpeed="-1.00" length="-1.00" nVehEntered="0"/>
    <interval begin="3600.00" end="7200.00" id="306:13Din" nVehContrib="0" flow="0.00" occupancy="0.00" speed="-1.00" harmonicMeanSpeed="-1.00" length="-1.00" nVehEntered="0"/>
    <interval begin="3600.00" end="7200.00" id="306:15Din" nVehContrib="0" flow="0.00" occupancy="0.00" speed="-1.00" harmonicMeanSpeed="-1.00" length="-1.00" nVehEntered="0"/>
    <interval begin="3600.00" end="7200.00" id="306:17Din" nVehContrib="0" flow="0.00" occupancy="0.00" speed="-1.00" harmonicMeanSpeed="-1.00" length="-1.00" nVehEntered="0"/>
    <interval begin="3600.00" end="7200.00" id="306:19Din" nVehContrib="0" flow="0.00" occupancy="0.00" speed="-1.00" harmonicMeanSpeed="-1.00" length="-1.00" nVehEntered="0"/>
    <interval begin="3600.00" end="7200.00" id="306:21Din" nVehContrib="0" flow="0.00" occupancy="0.00" speed="-1.00" harmonicMeanSpeed="-1.00" length="-1.00" nVehEntered="0"/>
    <interval begin="3600.00" end="7200.00" id="306:1Din" nVehContrib="0" flow="0.00" occupancy="0.04" speed="-1.00" harmonicMeanSpeed="-1.00" length="-1.00" nVehEntered="7"/>
    <interval begin="3600.00" end="7200.00" id="306:3Din" nVehContrib="20" flow="20.00" occupancy="0.52" speed="12.57" harmonicMeanSpeed="5.83" length="5.00" nVehEntered="22"/>
    <interval begin="3600.00" end="7200.00" id="306:5Din" nVehContrib="2" flow="2.00" occupancy="0.06" speed="4.59" harmonicMeanSpeed="4.57" length="5.00" nVehEntered="2"/>
    <interval begin="3600.00" end="7200.00" id="306:7Din" nVehContrib="9" flow="9.00" occupancy="0.06" speed="19.30" harmonicMeanSpeed="19.28" length="5.00" nVehEntered="9"/>
    <interval begin="3600.00" end="7200.00" id="306:27Din" nVehContrib="3" flow="3.00" occupancy="0.03" speed="13.79" harmonicMeanSpeed="13.75" length="5.00" nVehEntered="3"/>
    <interval begin="3600.00" end="7200.00" id="306:29Din" nVehContrib="0" flow="0.00" occupancy="0.00" speed="-1.00" harmonicMeanSpeed="-1.00" length="-1.00" nVehEntered="0"/>
    <interval begin="3600.00" end="7200.00" id="306:31Din" nVehContrib="0" flow="0.00" occupancy="0.00" speed="-1.00" harmonicMeanSpeed="-1.00" length="-1.00" nVehEntered="0"/>
    <interval begin="3600.00" end="7200.00" id="306:23Din" nVehContrib="3" flow="3.00" occupancy="0.06" speed="7.11" harmonicMeanSpeed="7.09" length="5.00" nVehEntered="3"/>
    <interval begin="3600.00" end="7200.00" id="306:25Din" nVehContrib="10" flow="10.00" occupancy="0.14" speed="9.68" harmonicMeanSpeed="9.59" length="5.00" nVehEntered="10"/>
    <interval begin="3600.00" end="7200.00" id="velocity0" nVehContrib="10" flow="10.00" occupancy="0.05" speed="29.06" harmonicMeanSpeed="28.76" length="5.00" nVehEntered="10"/>
    <interval begin="3600.00" end="7200.00" id="velocity1" nVehContrib="0" flow="0.00" occupancy="0.00" speed="-1.00" harmonicMeanSpeed="-1.00" length="-1.00" nVehEntered="0"/>
    <interval begin="3600.00" end="7200.00" id="velocity2" nVehContrib="0" flow="0.00" occupancy="0.00" speed="-1.00" harmonicMeanSpeed="-1.00" length="-1.00" nVehEntered="0"/>
    <interval begin="7200.00" end="10800.00" id="601:1Din" nVehContrib="3" flow="3.00" occupancy="0.04" speed="9.58" harmonicMeanSpeed="9.56" length="5.00" nVehEntered="3"/>
    <interval begin="7200.00" end="10800.00" id="601:3Din" nVehContrib="0" flow="0.00" occupancy="0.00" speed="-1.00" harmonicMeanSpeed="-1.00" length="-1.00" nVehEntered="0"/>
    <interval begin="7200.00" end="10800.00" id="601:9Din" nVehContrib="0" flow="0.00" occupancy="0.00" speed="-1.00" harmonicMeanSpeed="-1.00" length="-1.00" nVehEntered="0"/>
    <interval begin="7200.00" end="10800.00" id="601:5Din" nVehContrib="0" flow="0.00" occupancy="0.00" speed="-1.00" harmonicMeanSpeed="-1.00" length="-1.00" nVehEntered="0"/>
    <interval begin="7200.00" end="10800.00" id="601:7Din" nVehContrib="0" flow="0.00" occupancy="0.00" speed="-1.00" harmonicMeanSpeed="-1.00" length="-1.00" nVehEntered="0"/>
    <interval begin="7200.00" end="10800.00" id="601:11Din" nVehContrib="0" flow="0.00" occupancy="0.00" speed="-1.00" harmonicMeanSpeed="-1.00" length="-1.00" nVehEntered="0"/>
    <interval begin="7200.00" end="10800.00" id="601:13Din" nVehContrib="0" flow="0.00" occupancy="0.00" speed="-1.00" harmonicMeanSpeed="-1.00" length="-1.00" nVehEntered="0"/>